# vtk DataFile Version 2.0
sampleSurface
ASCII
DATASET POLYDATA
POINTS 4830 float
-22.998 -22.9991 1.5 -25 -22.9992 1.5 -25 -25 1.5 -22.9982 -25
1.5 -20.9963 -22.999 1.5 -20.9965 -25 1.5 -18.9948 -22.9987 1.5
-18.9951 -25 1.5 -16.9936 -22.9984 1.5 -16.9941 -25 1.5 -14.9929
-22.9979 1.5 -14.9934 -25 1.5 -12.9925 -22.9974 1.5 -12.9931 -25
1.5 -10.9927 -22.9967 1.5 -10.9932 -25 1.5 -8.99329 -22.9958 1.5
-8.9938 -25 1.5 -6.99433 -22.995 1.5 -6.99474 -25 1.5 -4.9957
-22.9942 1.5 -4.996 -25 1.5 -2.9973 -22.9936 1.5 -2.99747 -25
1.5 -0.999071 -25 1.5 -0.999021 -22.9933 1.5 -22.9978 -20.9984 1.5
-25 -20.9985 1.5 -20.9958 -20.9981 1.5 -18.9941 -20.9976 1.5 -16.9927
-20.997 1.5 -14.9917 -20.9962 1.5 -12.9914 -20.995 1.5 -10.9915 -20.9936
1.5 -8.99225 -20.9921 1.5 -6.99349 -20.9903 1.5 -4.99513 -20.9887 1.5
-2.99699 -20.9874 1.5 -0.998932 -20.9867 1.5 -22.9974 -18.9978 1.5 -25
-18.998 1.5 -20.995 -18.9974 1.5 -18.993 -18.9968 1.5 -16.9913 -18.9958
1.5 -14.9902 -18.9946 1.5 -12.9896 -18.993 1.5 -10.9897 -18.991 1.5
-8.99064 -18.9886 1.5 -6.99224 -18.9858 1.5 -4.99433 -18.983 1.5 -2.99661
-18.9808 1.5 -0.998826 -18.9795 1.5 -22.9969 -16.9974 1.5 -25 -16.9976
1.5 -20.9941 -16.9969 1.5 -18.9916 -16.9961 1.5 -16.9895 -16.9951 1.5
-14.988 -16.9935 1.5 -12.9871 -16.9916 1.5 -10.9872 -16.9889 1.5 -8.98831
-16.9854 1.5 -6.99052 -16.9813 1.5 -4.99338 -16.9768 1.5 -2.99625 -16.973
1.5 -0.998745 -16.9711 1.5 -22.9963 -14.9971 1.5 -25 -14.9974 1.5
-20.9929 -14.9966 1.5 -18.9898 -14.9958 1.5 -16.9872 -14.9946 1.5 -14.985
-14.993 1.5 -12.9837 -14.9908 1.5 -10.9835 -14.9876 1.5 -8.98497 -14.983
1.5 -6.98821 -14.9768 1.5 -4.99245 -14.9695 1.5 -2.99625 -14.9634 1.5
-0.998762 -14.9607 1.5 -22.9956 -12.9971 1.5 -25 -12.9973 1.5 -20.9915
-12.9966 1.5 -18.9878 -12.9958 1.5 -16.9843 -12.9948 1.5 -14.9813 -12.9931
1.5 -12.979 -12.991 1.5 -10.978 -12.9876 1.5 -8.97958 -12.9814 1.5
-6.98478 -12.9725 1.5 -7.98122 -12.9776 1.5 -4.99187 -12.9594 1.5 -5.98823
-12.9656 1.5 -2.99741 -12.9488 1.5 -3.99516 -12.9528 1.5 -1.99841 -12.9448
1.5 -0.9989 -12.9453 1.5 -22.9949 -10.9973 1.5 -25 -10.9975 1.5
-20.9901 -10.9968 1.5 -18.9855 -10.9962 1.5 -16.9811 -10.9952 1.5 -14.9768
-10.9939 1.5 -12.9728 -10.9922 1.5 -10.9683 -10.9898 1.5 -8.97633 -11.9818
1.5 -8.97046 -10.9851 1.5 -9.96737 -10.9884 1.5 -22.9942 -8.99757 1.5
-25 -8.99775 1.5 -20.9887 -8.99723 1.5 -18.9833 -8.99672 1.5 -16.9778
-8.99604 1.5 -14.9719 -8.9952 1.5 -12.9654 -8.99426 1.5 -10.963 -9.99116
1.5 -10.9574 -8.99319 1.5 -22.9935 -6.99802 1.5 -25 -6.99814 1.5
-20.9874 -6.99778 1.5 -18.9812 -6.99743 1.5 -16.9746 -6.99702 1.5 -14.9671
-6.99661 1.5 -12.9581 -6.99635 1.5 -10.9502 -7.995 1.5 -10.9451 -6.99651
1.5 -22.993 -4.99854 1.5 -25 -4.99862 1.5 -20.9864 -4.99838 1.5
-18.9796 -4.99818 1.5 -16.9721 -4.99797 1.5 -14.9634 -4.99784 1.5 -12.9529
-4.99791 1.5 -10.9395 -5.99766 1.5 -10.9375 -4.99841 1.5 -22.9927 -2.9991
1.5 -25 -2.99915 1.5 -20.9857 -2.99902 1.5 -18.9785 -2.99891 1.5
-16.9705 -2.99883 1.5 -14.9612 -2.99881 1.5 -12.9501 -2.99893 1.5 -10.9344
-3.999 1.5 -10.9344 -2.99932 1.5 -22.9926 -0.999682 1.5 -25 -0.999697
1.5 -20.9854 -0.999655 1.5 -18.9779 -0.999622 1.5 -16.9697 -0.999594 1.5
-14.9603 -0.999587 1.5 -12.9491 -0.999629 1.5 -10.9328 -1.9996 1.5 -10.9337
-0.999758 1.5 -1.01886 -1.02069 1.5 -2.0342 -1.0169 1.5 -2.02674 -2.03431
1.5 -1.01701 -2.03582 1.5 -22.9926 0.999727 1.5 -25 0.999741 1.5
-20.9854 0.999703 1.5 -18.978 0.999676 1.5 -16.9698 0.999663 1.5 -14.9604
0.999687 1.5 -12.9492 0.999774 1.5 -6.98024 -10.4749 1.5 -6.98171 -10.9725
1.5 -6.48441 -10.9677 1.5 -6.48402 -10.4695 1.5 -4.99073 -10.9476 1.5
-4.98894 -10.4445 1.5 -5.48862 -10.4482 1.5 -5.48904 -10.9521 1.5 -6.46348
-9.00101 1.5 -6.95251 -8.99642 1.5 -6.96868 -9.48867 1.5 -6.48206 -9.48617
1.5 -6.47922 -9.24391 1.5 -4.49361 -10.945 1.5 -4.49199 -10.4451 1.5
-3.00343 -10.9304 1.5 -3.00541 -10.6282 1.5 -3.36513 -10.4341 1.5 -3.50451
-10.437 1.5 -3.50191 -10.9367 1.5 -2.50255 -10.9246 1.5 -2.50427 -10.5132
1.5 -6.92425 -8.49922 1.5 -6.43174 -8.75172 1.5 -6.41913 -8.61299 1.5
-6.44721 -8.5018 1.5 -1.02561 -3.55016 1.5 -1.01957 -3.05021 1.5 -1.51707
-3.05219 1.5 -1.51804 -3.55368 1.5 -0.519151 -3.05444 1.5 -0.526964 -3.55618
1.5 -7.92619 -7.99765 1.5 -8.93976 -7.99587 1.5 -8.95236 -8.99285 1.5
-7.9489 -8.99367 1.5 -7.93656 -8.49617 1.5 -7.44936 -8.99446 1.5 -7.43251
-8.49721 1.5 -7.91362 -6.99902 1.5 -8.93046 -6.99764 1.5 -7.91808 -7.49857
1.5 -7.91639 -7.30955 1.5 -7.14592 -7.49945 1.5 -7.41052 -7.3871 1.5
-7.4115 -7.4991 1.5 -7.90862 -5.99957 1.5 -8.92491 -5.99865 1.5 -7.91006
-6.49938 1.5 -7.90654 -4.99984 1.5 -8.92184 -4.99923 1.5 -7.90692 -5.49975
1.5 -7.90557 -3.99994 1.5 -8.92011 -3.99955 1.5 -7.90551 -4.49992 1.5
-7.90525 -2.99996 1.5 -8.91936 -2.99973 1.5 -7.90491 -3.49996 1.5 -7.90535
-1.99998 1.5 -8.91912 -1.99983 1.5 -7.90485 -2.49998 1.5 -7.90559 -0.999977
1.5 -8.91922 -0.999894 1.5 -7.90504 -1.49998 1.5 -7.40069 -1.49999 1.5
-7.40088 -0.999988 1.5 -3.0455 -2.02906 1.5 -4.08139 -2.01232 1.5 -4.07577
-2.51982 1.5 -4.06027 -3.03659 1.5 -3.53678 -3.05498 1.5 -3.0244 -3.06121
1.5 -4.08666 -1.00436 1.5 -4.59493 -1.0026 1.5 -4.59421 -1.50442 1.5
-4.086 -1.50709 1.5 -3.0555 -1.01211 1.5 -5.48939 -9.41751 1.5 -5.48826
-9.93889 1.5 -4.98447 -9.94022 1.5 -4.98068 -9.68731 1.5 -4.97861 -9.43047
1.5 -5.23351 -9.41408 1.5 -5.99626 -9.46684 1.5 -5.98974 -9.96048 1.5
-5.74394 -9.43567 1.5 -3.52087 -9.46076 1.5 -3.76277 -9.46804 1.5 -3.9993
-9.46729 1.5 -3.99746 -9.59419 1.5 -3.83925 -9.94726 1.5 -3.51015 -9.94191
1.5 -3.276 -9.45043 1.5 -3.01318 -9.92216 1.5 -3.01794 -9.66828 1.5
-3.02255 -9.42385 1.5 -3.99804 -9.94984 1.5 -3.99581 -9.70796 1.5 -1.98018
-9.39126 1.5 -2.00055 -9.39125 1.5 -2.00228 -9.64716 1.5 -2.00087 -9.87711
1.5 -1.74467 -9.39135 1.5 -2.0007 -9.9046 1.5 -1.49128 -9.91059 1.5
-1.48802 -9.65548 1.5 -1.48843 -9.39682 1.5 -6.40905 -8.50201 1.5 -6.65841
-8.00046 1.5 -6.90791 -7.99983 1.5 -6.39576 -8.25201 1.5 -6.39228 -8.00114
1.5 -6.90076 -7.49977 1.5 -6.38899 -7.50016 1.5 -6.3875 -7.25001 1.5
-6.38817 -6.99994 1.5 -6.89765 -6.99976 1.5 -6.90394 -7.72202 1.5 -6.38879
-7.75059 1.5 -2.9939 -7.50065 1.5 -2.48724 -7.50083 1.5 -2.48645 -7.25027
1.5 -2.48689 -6.99987 1.5 -2.99265 -6.99936 1.5 -2.48709 -7.75191 1.5
-2.99975 -8.00179 1.5 -2.74459 -8.00356 1.5 -2.48885 -8.00379 1.5 -0.497126
-8.00025 1.5 -0.491258 -8.2494 1.5 -0.485415 -8.49761 1.5 -0.24055 -8.49647
1.5 -0.000711833 -8.49664 1.5 -0.00285814 -8.24858 1.5 -0.00193439 -7.99972 1.5
-6.38786 -6.49995 1.5 -6.89613 -6.49983 1.5 -6.38717 -6.74995 1.5 -6.89536
-5.9999 1.5 -6.38704 -6.24997 1.5 -6.38772 -5.99997 1.5 -6.89488 -5.49998
1.5 -6.38764 -5.50001 1.5 -6.38694 -5.25003 1.5 -6.38757 -5.00004 1.5
-6.89458 -5.00003 1.5 -6.38698 -5.74999 1.5 -3.51028 -5.48815 1.5 -3.77334
-5.4899 1.5 -4.04462 -5.49506 1.5 -4.04139 -5.74644 1.5 -4.02898 -5.99629
1.5 -3.50778 -5.99289 1.5 -3.25279 -5.48693 1.5 -2.99533 -5.99254 1.5
-2.99461 -5.73955 1.5 -2.99704 -5.48712 1.5 -2.9933 -6.49725 1.5 -2.48637
-6.74953 1.5 -2.487 -6.49872 1.5 -2.48652 -6.24754 1.5 -2.48724 -5.99488
1.5 -2.74055 -5.99272 1.5 -6.38753 -4.50004 1.5 -6.89433 -4.50004 1.5
-6.38692 -4.75005 1.5 -6.89419 -4.00002 1.5 -6.3869 -4.25002 1.5 -6.3875
-4.00001 1.5 -6.89409 -3.5 1.5 -6.38749 -3.5 1.5 -6.38687 -3.25
1.5 -6.38749 -3 1.5 -6.89408 -3 1.5 -6.38687 -3.75 1.5
-6.38749 -2.5 1.5 -6.89407 -2.5 1.5 -6.38687 -2.75 1.5 -6.89412
-2 1.5 -6.38688 -2.25 1.5 -6.3875 -2 1.5 -6.89416 -1.5
1.5 -6.38751 -1.5 1.5 -6.38689 -1.25 1.5 -6.38753 -0.999999 1.5
-6.89423 -0.999996 1.5 -6.38688 -1.75 1.5 -7.97425 -10.9811 1.5 -7.9646
-9.98766 1.5 -8.96309 -9.98885 1.5 -6.97525 -9.98132 1.5 -7.46776 -9.98614
1.5 -7.95878 -9.49042 1.5 -7.46159 -9.48996 1.5 -6.48316 -9.97491 1.5
-6.24028 -9.48232 1.5 -5.23384 -9.15197 1.5 -5.4909 -9.15199 1.5 -4.97787
-9.17575 1.5 -5.01429 -9 1.5 -5.23811 -9 1.5 -5.49441 -9
1.5 -4.72587 -9.43409 1.5 -4.72624 -9.4519 1.5 -4.5406 -9.45931 1.5
-4.82325 -9.20175 1.5 -4.96068 -9 1.5 -3.28065 -9.21799 1.5 -3.52605
-9.22549 1.5 -3.52179 -9.41719 1.5 -3.27656 -9.41518 1.5 -3.18689 -9.20202
1.5 -3.04001 -9 1.5 -3.14285 -9 1.5 -3.52976 -8.99303 1.5
-1.23149 -9.14831 1.5 -1.48845 -9.13977 1.5 -1.23266 -9.40646 1.5 -0.976753
-9.17395 1.5 -1.01285 -9 1.5 -1.23482 -9 1.5 -1.48898 -9
1.5 -0.978359 -9.42492 1.5 -3.27677 -8.74692 1.5 -3.26597 -8.49828 1.5
-3.28425 -8.49824 1.5 -3.51869 -8.62298 1.5 -3.52266 -8.7458 1.5 -2.98509
-8.9 1.5 -3.01643 -8.74174 1.5 -3.01082 -8.49855 1.5 -2.75382 -8.75679
1.5 -2.49225 -8.76346 1.5 -2.49199 -8.63798 1.5 -2.75206 -8.5573 1.5
-2.75031 -8.9 1.5 -2.49674 -8.9 1.5 -2.98058 -8.49936 1.5 -5.74542
-9.17789 1.5 -5.74904 -9 1.5 -6 -9 1.5 -6 -9
1.5 -6.00461 -9.23412 1.5 -6 -9 1.5 -4.72021 -9.2188 1.5
-4.47979 -9.46174 1.5 -4.4745 -9.22581 1.5 -4.85715 -9 1.5 -4.47009
-8.99308 1.5 -3.02379 -9.1738 1.5 -2.9872 -9 1.5 -2.76893 -9.14813
1.5 -2.7677 -9.40539 1.5 -2.51161 -9.39619 1.5 -2.5118 -9.13967 1.5
-2.76554 -9 1.5 -2.51125 -9 1.5 -2.00008 -9.04985 1.5 -2.00005
-9 1.5 -2.00354 -9 1.5 -2.25533 -9.13757 1.5 -2.25578 -9.39243
1.5 -2.00014 -9.1371 1.5 -2.25467 -9 1.5 -1.7449 -9.13745 1.5
-1.74546 -9 1.5 -1.99447 -9.13711 1.5 -6.14833 -8.50305 1.5 -6.13965
-8.25252 1.5 -6 -8.25292 1.5 -6 -8.06415 1.5 -6.01249 -8.00123
1.5 -6.13741 -8.00132 1.5 -6 -8.50565 1.5 -6.33352 -8.75179 1.5
-6.19308 -8.82756 1.5 -6.23278 -9.00722 1.5 -6 -9 1.5 -6.17637
-8.75191 1.5 -6 -8.75418 1.5 -6 -8.00122 1.5 -5.76366 -8.25694
1.5 -5.76432 -8.51271 1.5 -5.50833 -8.51038 1.5 -5.50997 -8.25654 1.5
-5.9 -8.25622 1.5 -5.76375 -8.00333 1.5 -5.9 -8.00262 1.5 -5.9
-8.50792 1.5 -5.51132 -8.00371 1.5 -5.24607 -8.75682 1.5 -5.24848 -8.50546
1.5 -5.50771 -8.76358 1.5 -5.24952 -8.9 1.5 -5.01461 -8.9 1.5
-4.98335 -8.74176 1.5 -5.50315 -8.9 1.5 -4.98924 -8.49857 1.5 -5.9
-8.88462 1.5 -5.9 -8.9 1.5 -5.89763 -8.9 1.5 -5.76846 -8.76952
1.5 -5.9 -8.73084 1.5 -5.72927 -8.9 1.5 -6.13653 -7.7505 1.5
-6.13634 -7.50009 1.5 -6.03151 -7.75035 1.5 -6.04195 -7.50001 1.5 -6.04189
[...]
CELL_DATA 4172
FIELD attributes 1
U 3 4172 float
-0.00180394 9.99488 0.00225081 -0.00549552 9.99489 0.00227893 -0.00945263 9.9949 0.00244057 -0.0138329 9.9949
0.00272059 -0.0187265 9.99486 0.00317948 -0.0240876 9.99472 0.00391133 -0.0294991 9.99431 0.00503731
-0.0340029 9.99347 0.00661338 -0.0359453 9.992 0.0087374 -0.0334795 9.99006 0.0108945 -0.0258718
9.98821 0.0128294 -0.0139536 9.98695 0.0141734 -0.00614645 9.99561 0.00736069 -0.0186842 9.99564
0.00751671 -0.0320456 9.9957 0.00811 -0.0471155 9.99553 0.0091446 -0.0641861 9.99455 0.0107476
-0.0826188 9.99193 0.0133268 -0.101561 9.98622 0.0174656 -0.117865 9.97516 0.0233857 -0.125274
9.95737 0.0313953 -0.117159 9.93468 0.0402716 -0.0907033 9.91329 0.0483118 -0.0492029 9.89861
0.0538709 -0.0108113 9.99909 0.010794 -0.0328414 9.99938 0.0111931 -0.0573077 9.99951 0.0121995
-0.0836182 9.99881 0.0138995 -0.113057 9.99669 0.0170395 -0.149104 9.99021 0.0220281 -0.187538
9.97381 0.029636 -0.221533 9.94138 0.0413188 -0.240343 9.88816 0.0575436 -0.22773 9.81861
0.0762558 -0.17723 9.7531 0.0934574 -0.0963887 9.70844 0.105275 -0.0154288 10.0079 0.0131766
-0.0471803 10.0089 0.0138168 -0.0821494 10.0098 0.0155229 -0.1236 10.0095 0.0184953 -0.175397
10.0056 0.022516 -0.227322 9.99348 0.0295069 -0.289078 9.96319 0.0424108 -0.356374 9.89682
0.0622919 -0.398184 9.7798 0.0907894 -0.385259 9.62046 0.124784 -0.302239 9.47035 0.156477
-0.164821 9.36931 0.178243 -0.0197552 10.0236 0.0149338 -0.0607854 10.0257 0.0158103 -0.106819
10.0291 0.0182456 -0.163123 10.0316 0.0224368 -0.232076 10.0282 0.0286542 -0.323227 10.0108
0.038388 -0.427497 9.96382 0.0562654 -0.537329 9.85277 0.0899658 -0.636624 9.6358 0.142701
-0.635973 9.31381 0.209965 -0.501677 9.01205 0.27323 -0.273142 8.81422 0.316335 -0.0234901
10.0458 0.0162456 -0.0726437 10.0499 0.017363 -0.12902 10.0572 0.0203499 -0.199155 10.0657
0.0256536 -0.290849 10.0691 0.0343292 -0.414395 10.0547 0.0492683 -0.590658 9.99622 0.0751695
-0.811627 9.81926 0.122761 -0.999154 9.42506 0.211067 -1.02936 8.75625 0.323052 -0.82084
8.14242 0.429198 -0.445653 7.76123 0.502443 -0.0262642 10.0733 0.0172248 -0.0815599 10.0802
0.0185687 -0.146217 10.0936 0.0219497 -0.228771 10.1121 0.0281357 -0.341752 10.1305 0.0392194
-0.508018 10.136 0.0594603 -0.774285 10.0991 0.0986259 -1.13865 9.90049 0.188127 -0.0276103
10.104 0.0179027 -0.0860525 10.1147 0.019438 -0.155429 10.1363 0.023192 -0.246514 10.1696
0.0301508 -0.376454 10.2144 0.043431 -0.573656 10.2643 0.0688907 -0.911935 10.2992 0.12403
-0.0270741 10.1355 0.0182304 -0.0846151 10.1504 0.0198881 -0.153134 10.1813 0.0239687 -0.243178
10.2324 0.031633 -0.373995 10.3102 0.0462799 -0.566941 10.4217 0.0760329 -0.891625 10.5568
0.136405 -0.0245009 10.1643 0.0180668 -0.0765185 10.1828 0.0198295 -0.137392 10.2221 0.0238676
-0.215605 10.2879 0.0315127 -0.322959 10.3905 0.0453821 -0.467369 10.5446 0.0742898 -0.685573
10.7444 0.122679 -0.020188 10.187 0.0176621 -0.0624891 10.2078 0.0190212 -0.110698 10.2514
0.0223693 -0.165137 10.3233 0.0285394 -0.233258 10.4335 0.0389181 -0.317169 10.5905 0.0602054
-0.417945 10.7794 0.0835503 -0.0148134 10.2018 0.0166072 -0.045618 10.2229 0.0173404 -0.0782651
10.2665 0.0197573 -0.113686 10.3366 0.0238196 -0.155292 10.4397 0.0291872 -0.184584 10.5726
0.0410308 -0.221803 10.7078 0.0413351 -0.606372 1.46661 0.453217 -0.00933628 10.2086 0.0143936
-0.0287816 10.2287 0.0150155 -0.0493793 10.2702 0.0165156 -0.0690295 10.3355 0.0187025 -0.0891532
10.4265 0.0199199 -0.0943318 10.5353 0.0255171 -3.0566 8.62442 1.13837 -2.61064 7.13843
1.62691 -5.8614 9.22539 1.59211 -2.23278 6.97157 1.78223 -1.7503 6.46072 2.05785
-1.42341 6.14526 2.15821 -5.73339 9.88301 1.53453 -1.04 0.996198 -0.402193 -0.997153
-0.786275 -0.313516 -2.92824 10.8308 0.801333 -4.81703 10.8298 1.40595 -2.80079 11.5436
0.83731 -2.68004 9.42904 1.90928 -2.4272 12.089 0.786543 -1.77042 11.9881 0.636669
-1.11093 11.6498 0.418033 -0.634319 11.2242 0.205274 -0.342698 10.8215 0.0652697 -0.176382
10.5101 -0.00907095 0.357189 6.03738 -0.269541 -1.36151 0.702126 0.459448 -0.450259 1.31172
0.473268 -1.06971 1.20183 0.646047 -2.96055 4.81076 1.8187 -4.41392 5.36915 1.79139
-2.44482 5.47006 1.79694 -2.58799 4.56345 1.42843 -2.55855 5.99227 1.89443 -0.526337
3.03108 0.740249 -0.559293 3.39341 1.81542 -5.95921 9.40767 1.10323 -3.9463 8.02424
2.07243 -3.91023 7.14773 1.88513 0.733288 -0.124686 2.20633 -1.70147 4.928 2.61274
-1.08872 3.026 2.5041 -1.19072 -0.490366 -1.47581 -1.35435 -0.195973 -0.54571 -1.31676
6.90236 1.88293 0.793525 -0.97004 1.68002 0.576202 -1.14406 1.05325 0.033959 -0.905076
-0.395781 0.245863 -1.08858 0.257451 0.146742 1.16423 -1.25059 0.00328819 0.28321 -1.62942
-1.02313 -0.706094 -1.91226 -0.675535 -0.883663 -2.26051 0.0239748 -0.603569 -0.885619 0.0932347
-0.161159 -1.23315 0.226702 0.98789 -1.55155 0.172742 0.394687 -1.44757 0.266724 1.56527
-1.55978 0.300945 2.09778 -1.50149 0.34252 3.02054 -1.28853 0.325708 2.58094 -1.40321
-2.34278 9.80991 0.535575 -2.95476 9.26623 0.827376 -2.7915 10.1654 0.668634 -4.59153
9.95484 1.3983 -4.58597 8.61183 1.51281 -5.04232 7.26777 1.69773 -3.31458 2.75378
1.14064 -0.588311 2.25503 0.41969 -2.069 3.26791 1.29744 -2.94739 1.32288 0.17556
-1.38743 6.45828 1.6515 0.757317 4.33557 1.763 -1.16636 4.764 1.64467 -3.68492
5.48316 1.0787 -5.10166 2.53261 -0.901435 -3.66233 3.77494 0.764393 -5.15673 5.92612
-0.553423 0.576458 1.94979 0.537833 2.40124 1.42676 -0.456921 0.908898 0.950326 -0.475152
1.33741 2.59513 0.741183 -2.63731 6.18616 1.89816 -1.64047 2.36913 3.81437 -4.24759
7.64541 0.0430822 -1.02192 0.875942 4.32068 -2.02981 -0.501735 1.76746 -2.35616 -0.418868
4.43392 -1.45951 -0.364969 4.31694 -2.12182 -0.215897 2.82157 -4.88604 3.05587 1.21071
-8.20939 1.88855 0.517941 -5.97631 4.26292 1.34236 -4.79422 1.46772 0.320929 -8.11442
1.86902 -0.0221301 -1.2949 6.18485 1.89931 1.28162 3.65139 1.83007 -1.17811 4.49702
1.65933 0.513878 7.18753 2.18188 -3.55641 5.47158 1.10093 -5.06899 3.01501 -0.964474
-3.64805 3.85123 0.486734 -2.32047 1.78458 -0.232979 -3.82797 1.25187 -1.10041 -3.11046
2.41663 -0.0293144 -2.47665 0.766085 -1.28376 -1.0723 0.675651 -0.432909 -1.66876 1.52961
-0.314085 -1.05586 0.625416 -1.29474 -1.07296 1.44654 -0.345605 -1.65064 0.649969 -1.28923
-0.0717025 1.69129 0.483951 -0.552926 0.732218 -0.436683 -0.590759 1.56826 0.4739 0.0462295
0.797738 -0.470892 -0.509718 0.643809 -1.27779 -0.556322 1.44657 -0.340831 -0.28274 0.559313
3.03924 0.0832156 -2.55536 2.62046 0.398968 -2.39996 3.18345 0.566944 -1.21722 2.99747
-3.50543 4.03017 2.03065 -4.54511 4.09296 0.812477 -6.95765 7.9932 1.14796 -3.35904
3.82048 1.91471 -4.481 3.92235 0.605274 -6.93917 7.78826 0.830277 0.628543 -3.48306
3.44822 0.055348 -2.53881 2.76003 -0.269618 -0.398446 3.24572 -0.2144 -0.339138 2.44801
-0.0534188 -0.0783777 2.9214 -0.988348 0.383847 2.78135 -0.33469 -0.42102 4.24943 1.96525
-0.533866 3.94455 0.621499 -0.457343 4.65063 -0.839784 1.27961 2.62986 -0.393406 0.324531
3.77015 0.155859 -0.505956 3.78393 -0.585137 0.311327 3.76574 -0.0735598 -0.285553 4.28345
-0.23365 0.18443 3.61892 0.650204 -1.77019 2.20967 0.169855 -2.33382 2.19037 0.674118
-1.56781 2.62438 0.190878 -2.1877 1.6954 0.211138 -1.40801 0.8448 0.243376 -1.78642
1.32352 0.606922 -1.76016 1.79086 0.218975 -1.62917 0.755893 0.264107 -1.9507 1.21772
0.506093 -1.60937 1.34482 0.10651 -2.25665 2.28566 0.12493 -2.08559 1.79713 -1.9142
2.46705 1.70846 -0.597796 -0.0630044 1.97324 -1.54055 1.39535 2.25329 -0.859648 0.649963
1.50714 -2.0863 3.53531 1.18819 -1.01587 2.43112 0.673605 -0.976319 1.52573 1.07825
-2.15013 4.49406 0.71117 -2.04171 9.61481 0.879219 -0.395509 4.42217 -0.49952 -0.662309
9.55912 1.43 -1.69728 5.56614 -0.488908 -2.79353 6.35951 2.14288 -1.30641 -1.4809
-1.00906 -0.321327 -2.82288 -1.7738 -0.440202 -2.04033 -0.807244 -0.851662 -1.12341 -1.72727
-1.893 -0.449573 1.92889 -1.7907 -0.116598 2.76711 -1.38086 -1.00595 0.806315 0.00532592
-0.0989103 4.18951 -0.834372 -0.372905 3.9396 -0.467921 -1.07681 0.528976 -1.24812 -0.792057
1.27311 0.117421 -0.0638679 3.89813 -0.404915 -0.713424 0.940075 -0.447839 -0.406706 3.55203
-0.262662 0.734979 3.06907 -0.329171 0.655432 3.58749 -0.555705 -0.137985 2.98228 -0.545879
-0.685913 4.41353 0.801184 -0.653062 4.58772 0.0828218 -0.561303 4.84208 -1.03211 -0.242202
3.84583 -0.443775 -0.372932 4.14344 -0.720712 0.399376 4.01144 -0.679652 -0.219685 4.51607
-0.486306 0.51068 4.05549 -0.673474 -1.40907 -2.32111 -0.175504 -3.2426 -2.32539 -0.607522
-1.04557 -2.04866 -0.114785 -3.5528 -2.65731 -0.670867 -1.92279 -2.63904 -0.132088 -4.10868
-3.08532 -0.105694 -3.86076 -2.89368 -0.514499 -2.35684 -2.90189 -0.780629 0.734779 1.90719
-0.252261 0.817035 2.52853 -0.645721 0.26017 2.42042 -0.293072 0.9784 1.96434 -0.817343
1.24534 1.43946 -0.324301 1.59117 0.89835 -0.318033 1.26039 1.4154 -0.797791 1.73214
1.00966 0.692574 7.89822 -0.0305547 0.360837 2.40359 0.427519 -0.996962 2.32699 0.791626
2.28236 8.05683 0.536894 0.22822 -1.25244 0.0758964 0.0655313 -0.881683 -1.02161 0.0923011
-1.0669 -0.604037 0.165447 -1.0984 -0.323548 0.172374 -1.1096 0.357286 0.14672 -0.828002
-0.12735 0.294421 -1.40184 0.489552 0.152071 -1.41858 0.292077 0.341778 -1.5255 0.902244
0.129527 -1.25685 -0.163715 0.0846789 -0.383227 -1.05388 0.105848 -0.585114 -0.602294 -1.86646
6.52439 -0.485916 -0.817876 5.39374 -0.675823 -0.901498 4.78922 -0.385914 -1.67221 6.92064
-0.824834 -2.02369 5.97628 -0.119267 -1.00747 3.27518 0.288778 -2.11846 5.31848 0.27859
-0.970182 4.08416 -0.0638786 0.0331636 -0.805086 -1.06541 0.0300669 -0.719937 -1.41227 0.107263
-0.940213 -0.726368 0.0149224 -0.601257 -1.74042 0.0687652 0.414162 -2.33518 0.0908758 0.220887
-2.10285 0.0396903 -0.664009 -1.37656 -0.00750539 -0.366508 -2.2418 0.0135782 -0.477382 -2.02851
-0.0488293 -0.530068 -1.62861 0.0855839 -0.175059 -1.463 0.0716279 0.0172746 -1.80618 -1.20295
7.39366 -1.40908 -0.709997 5.9166 -0.932791 -1.4296 7.20907 -1.13305 -0.598081 6.23235
-1.15693 -0.539659 6.81873 -1.1585 0.145217 4.72904 -0.866907 -0.261074 6.12879 -0.670651
0.00416041 6.93017 -1.51898 -0.905332 7.80248 -1.6292 -0.275203 5.70399 -1.19089 -0.452374
7.11613 -1.41632 -0.701927 7.95795 -1.74157 -0.472854 5.42554 -0.276659 -0.793212 3.53083
-2.91764 1.36682 1.81977 -5.75342 0.642429 2.48495 -3.36693 -2.1951 2.693 -5.37326
2.41006 0.550495 -3.52563 4.41811 0.275131 -4.79123 2.44855 0.185388 -3.46501 4.35692
0.458937 -5.15433 2.11734 0.971586 -3.58241 2.96998 1.12938 -5.67075 1.63212 1.49559
-3.52221 3.96697 0.734305 -5.46446 -0.254027 -2.72886 -3.31721 0.0371819 -4.30802 -3.35713
-0.0642438 -4.3713 -3.35451 -0.170746 -2.6675 -3.33654 -0.327755 -2.73651 -3.22654 -0.140173
-4.26788 -3.22839 -0.403425 -2.59197 -3.0935 -0.124468 -4.35689 -3.31403 -0.406941 2.93755
-0.22109 -0.034707 2.8299 -1.07746 -0.206903 2.5711 -0.563581 -0.187717 3.28275 -0.635329
-0.576188 2.57545 0.195829 -0.306782 1.93749 0.397204 -0.703974 2.17733 0.600884 -0.26779
2.27267 -0.0782114 0.698683 -2.14067 -3.30589 0.221691 -4.08001 -3.35165 0.148746 -2.454
-3.32724 0.455798 -3.43693 -3.33576 2.06679 -0.658146 -3.37051 4.19606 0.117404 -4.38001
2.34695 -0.157563 -3.41072 3.62154 -0.135612 -3.90178 1.72999 -1.52299 -3.37261 0.691999
-0.81998 -2.8185 0.729716 -2.01074 -3.31008 2.43804 -0.600075 -3.31548 0.377138 4.08694
-1.36696 0.25727 2.84674 -1.49442 0.129918 3.69472 -1.01092 0.481548 2.38629 -2.3379
0.403053 4.55782 -1.66613 0.147965 1.95925 -4.10362 -0.17357 2.23756 -4.21554 0.168488
4.6974 -2.53982 0.47924 4.94486 -1.61502 0.247072 2.30162 -2.83293 0.323078 2.96368
-3.33065 0.343233 4.90154 -2.07684 -1.49756 3.94468 -2.8658 -0.956154 1.93531 -5.1872
-0.512089 3.06078 -3.65004 -3.58502 2.85458 -4.58279 0.088759 -0.00500363 -2.10776 0.00951573
0.253905 -2.58916 0.0339799 0.0661048 -2.55957 -0.0191888 0.212283 -2.18709 -0.0554746 -0.19833
-1.99541 0.0188608 -0.236361 -2.39681 0.045793 -0.375809 -1.83042 -0.00693031 -0.0898935 -2.51141
-0.562914 7.65714 -1.56653 -0.543123 6.23728 -0.67221 -0.833372 5.78707 -0.771392 -0.381466
7.6816 -1.48954 -0.392086 6.87683 -1.29495 -0.843452 3.42449 -0.861695 -0.303454 7.17594
-1.5057 -0.904276 7.6765 -1.67048 -1.18892 4.44653 -0.867553 -1.0471 7.85515 -1.78157
-1.20619 5.32921 -0.954089 -0.277741 6.69277 -1.13995 0.0441461 0.683597 -2.22522 0.0497956
0.42927 -2.5483 0.125853 0.443336 -2.22177 0.0365491 0.63509 -2.50577 0.150272 0.935313
-2.20156 0.0527769 1.03994 -2.33504 0.0594879 0.828025 -2.41967 0.092625 1.18056 -2.15268
-0.237462 7.58391 -1.33906 -0.362205 6.38682 -0.656805 -0.283556 7.65225 -1.41495 -0.23897
6.37709 -0.675433 -0.219366 7.50692 -1.26962 -0.0898331 6.29331 -0.741035 -0.152172 6.33615
-0.706614 -0.202095 7.4275 -1.20721 -0.824283 -0.785855 -0.593613 -1.45935 -0.55726 -0.589958
-0.478234 -0.342873 -0.567779 -1.08922 -0.907528 -0.480297 0.0792164 -1.11097 0.553755 0.566882
-0.614545 0.602524 -0.0321503 -0.582475 0.230788 0.59638 -1.15241 0.957011 -0.350235 -0.984692
0.102259 -0.761169 -0.516618 -0.423749 -0.462733 -0.494052 -0.15184 -0.684224 -0.982331 -0.228021
1.34417 -0.61695 1.1864 1.15608 -0.571663 0.860414 1.74592 -0.417159 0.947746 1.07132
-0.966515 1.1958 1.30165 -0.0981491 1.03743 1.62398 0.111848 0.584496 1.71481 -0.198059
0.871132 0.881105 0.725994 0.528365 -0.552113 -1.18071 -0.882574 -0.431701 -1.25697 -0.978937
-0.766919 -0.668273 -0.337003 -0.0706651 -0.839335 -0.545727 -0.526351 -1.09071 -0.672324 0.192665
1.90923 -1.91506 0.0847706 1.78092 -1.87241 0.0834323 1.59376 -1.98828 0.17305 2.14035
-1.82389 0.133575 1.67374 -2.00639 0.0678723 1.22946 -2.22132 0.169116 1.42991 -2.08685
0.0681788 1.41739 -2.10938 -0.148343 7.03512 -1.00838 -0.0158827 6.09112 -0.817798 -0.0146511
6.14559 -0.815026 -0.125399 6.83497 -0.939557 -0.167488 7.20243 -1.07766 -0.0484818 6.24709
-0.774518 -0.18548 7.33385 -1.14462 -0.0222192 6.19722 -0.800448 0.206737 2.57914 -1.63954
0.0948232 1.9679 -1.75901 0.21867 2.36156 -1.72961 0.0965368 2.16326 -1.65544 0.238707
2.79097 -1.55351 0.106578 2.55555 -1.47404 0.104414 2.35649 -1.559 0.230832 2.99637
-1.47252 -0.0761492 6.35148 -0.815803 -0.019213 6.02962 -0.811198 -0.102135 6.60375 -0.874506
-0.0216969 5.95538 -0.798108 -0.0506231 6.08763 -0.763585 -0.0252876 5.75599 -0.759703 -0.0241287
5.8644 -0.780549 -0.0267658 5.82206 -0.717184 0.374135 6.51327 1.4711 1.25364 5.63827
1.62545 3.52036 3.25509 0.481024 1.78621 3.91855 1.24475 1.18659 5.22133 1.61488
3.61762 2.72585 0.28273 1.76557 3.51215 0.941333 2.94154 6.04279 1.43393 -0.112196
10.6309 0.0121805 -0.444559 1.51994 0.709271 -0.249054 1.33129 0.623402 -0.11749 10.2967
-0.0456921 0.327869 6.22211 -0.275643 -0.359604 1.59153 0.467184 -0.63504 1.45379 0.77547
0.35269 3.42011 -1.17139 0.358975 3.78225 -1.05559 0.259097 3.58186 -1.26266 0.11708
3.32281 -1.20987 0.116585 3.13485 -1.26587 0.253555 3.76681 -1.20435 0.245933 3.39346
-1.32851 0.111734 2.75015 -1.39714 0.113546 2.94516 -1.32765 0.252286 3.19662 -1.39665
0.0309259 5.07412 -0.604636 -0.0119738 5.17407 -0.658435 -0.0178238 5.33891 -0.68529 0.0457232
4.85149 -0.574298 0.0142304 5.31147 -0.637941 -0.0246018 5.6313 -0.736287 -0.0221088 5.49154
-0.711311 -0.00502452 5.5618 -0.675412 0.118224 3.50301 -1.15942 0.260883 3.94257 -1.14732
-0.00522395 4.99968 -0.630943 0.0599438 4.64391 -0.545585 -0.629408 5.67595 -2.52233 -1.31554
6.29078 -1.92256 -0.272883 3.20812 -1.28889 -0.269388 5.7288 -2.17438 -0.726551 4.20728
-1.89284 -0.795202 6.21865 -1.87624 -1.54272 9.6073 0.348104 -1.6561 9.40314 0.446235
-1.89156 9.646 0.431216 -2.18815 9.2679 0.604525 -1.76314 8.86639 0.632207 -1.6844
8.57712 0.750226 -2.4192 8.54973 0.873952 -2.26516 7.8955 1.12167 -1.43469 8.11202
0.932319 -1.23519 7.92537 1.01905 -1.88838 7.36024 1.35884 -1.5619 7.10099 1.51297
-0.67707 6.62493 1.75482 -0.836611 7.63337 1.14144 -0.586418 7.55718 1.19271 -1.09176
6.69381 1.66931 -1.21456 1.9954 0.127942 -1.85979 2.56747 -0.427685 -0.957348 2.2662
-0.216042 -0.843823 1.13103 0.936996 -0.862195 0.351006 0.513105 -3.1043 8.09205 1.29034
-3.66266 8.56735 1.33691 -3.82854 7.76022 1.52622 -2.90033 7.5277 1.49216 -2.82186
6.30426 1.88362 -3.47789 6.80872 1.71823 -2.07188 6.82524 1.86895 -2.31619 6.32849
1.96992 -2.18259 6.36135 2.0497 -2.16802 5.66101 1.84741 -1.77017 5.81747 1.72833
-1.92286 6.74326 1.97398 -2.02711 5.80789 2.21271 -2.00648 5.17434 1.79475 -2.16533
6.27685 2.1402 -1.22245 4.33505 1.62561 -1.42684 5.41507 1.77354 -1.14977 5.99155
2.20846 -1.16086 5.2549 1.7954 -1.64498 4.55944 1.67417 -1.24641 5.03753 2.29764
-0.53503 6.03708 2.30276 -0.325028 5.16902 2.38689 -0.786265 6.00175 2.25459 -0.74777
5.05546 2.34778 -3.19234 7.7236 1.20492 -3.6393 7.54189 0.644302 -4.05552 8.19341
0.716675 -2.38048 5.62992 1.15742 -1.57224 4.54881 1.65565 -0.990304 0.109915 0.311871
-0.902936 0.396372 1.31603 -0.92247 2.33327 1.24476 -1.59136 6.14536 1.77423 -2.08678
4.47946 1.18406 -2.49493 4.87392 1.35581 -1.46848 5.08636 1.48024 -1.24146 7.58763
-1.43983 -1.70828 8.53121 -1.71175 -1.65867 8.47394 -1.53585 -1.17244 7.67458 -1.58924
-0.749424 2.27743 0.281161 -2.93774 6.40371 0.458512 -1.54471 3.59619 0.869809 -2.04742
5.19954 0.0104858 -0.688139 0.663746 0.0161325 -1.11615 0.147133 -0.292537 -0.784377 1.01518
0.649969 -0.964013 0.0163232 -0.777836 -1.9646 7.88046 -1.56604 -2.22812 8.74287 -1.76783
-1.97283 8.56436 -1.53206 -3.35478 7.76118 -2.17346 -0.523318 5.21829 -0.949931 -1.66002
6.22811 -1.05132 -1.06909 5.71484 -1.02513 -0.995152 5.77094 -1.02984 -0.754554 3.9231
-0.0432233 -1.46075 4.30133 0.696847 -1.14579 4.33588 0.887371 -0.843682 4.35272 -0.000961889
-1.94224 5.97148 -1.23153 -2.57323 6.54471 -1.17001 -1.55441 6.06181 -1.13985 -4.41214
6.26641 -1.53431 -1.18148 8.05071 -1.43561 -1.77064 8.81909 -1.74968 -1.21781 7.89121
-1.57046 -1.80148 8.90126 -1.63456 -1.82743 3.66291 -1.16785 -2.5874 8.95229 -1.90665
-2.92665 6.83927 -1.78579 -2.41102 8.03506 -1.65761 -0.035302 -1.271 -0.253453 0.233482
1.87335 -0.970849 -0.458804 1.8091 -0.731065 -0.026579 2.64232 -1.28742 -0.170473 -0.784117
0.0705414 -0.138489 -1.68834 0.804356 -0.906209 -0.448553 0.778467 -0.198557 -1.73445 1.1954
-0.427603 -0.849996 0.960606 -2.23912 7.00804 -0.965687 -1.42225 6.47788 -0.936595 -2.53348
7.21135 -0.850114 -1.84461 7.01333 -0.779359 -1.15991 2.94498 -0.765437 -1.47108 1.37656
-0.250284 -0.363592 -0.254592 0.471561 -1.95866 3.97528 -1.05396 -1.71418 6.08244 -1.53616
-1.71253 3.66136 -0.589688 -2.32851 3.82809 -0.537623 -1.75607 5.4975 -1.30985 -2.89817
5.72025 -0.908648 -1.44473 1.69555 -0.966616 -3.26763 7.02269 -1.11715 -3.32023 5.10999
-1.11969 -2.66154 5.58167 -0.991916 -0.0972157 -1.79592 -0.292599 -0.336293 -0.759335 -0.737529
-1.44063 -0.536065 -0.398332 -0.947543 -1.27359 -0.738797 -4.52114 11.4758 1.4562 -3.84023
10.8494 1.22515 -3.68989 11.4646 1.21528 -2.61331 7.69499 1.93249 -3.76959 10.7667
1.70436 -3.99818 9.89771 1.6389 -3.23464 12.017 1.25861 -3.76805 11.6758 1.25704
-3.5855 11.8941 1.20026 -1.19333 5.21193 2.14888 -0.0473102 2.62229 1.99509 -2.40064
9.99322 1.43122 -3.18742 11.0126 1.40736 0.474201 0.78296 0.715658 0.392406 1.19636
1.38155 -1.63064 8.86936 1.3315 -0.936712 7.78821 1.15449 0.57865 0.954194 0.227592
0.619126 1.28662 -0.132081 0.0763225 6.20101 0.655755 -0.330274 6.89251 0.924559 0.549911
2.17082 -0.602132 0.615298 1.70421 -0.403819 0.387112 5.75403 0.383897 0.465421 5.57911
0.141976 0.490421 2.65208 -0.720007 0.432031 3.11782 -0.769884 0.442843 5.68389 -0.1619
0.520107 5.57472 -0.0418093 0.37087 3.95069 -0.741329 0.398663 3.55159 -0.772609 0.428565
5.83119 -0.234687 0.171861 1.59179 -0.600768 -0.462502 -0.0814002 0.334447 0.0224676 1.62909
-0.365328 -0.462103 0.494668 0.431966 -0.108607 1.92853 -0.188786 -0.0790827 1.76003 -0.257709
-0.514822 0.970975 0.462567 -2.05024 5.93204 1.89968 -2.25627 5.99252 1.91031 -1.84981
5.86028 1.80236 -2.2215 5.65932 1.8786 -1.95927 5.17982 1.76241 -2.13862 5.87453
1.91023 -1.90926 6.48916 1.60844 -2.29718 6.62004 1.58718 -1.83711 5.60278 1.86386
-1.81018 6.29876 1.85976 -2.10744 7.21415 1.7708 -2.19695 6.38 1.84624 -1.75013
7.24582 1.71631 -2.08519 6.14897 1.80427 -2.25278 6.10989 1.95925 -2.18613 6.05018